# Time	a_winner	a_loosers
0.000000000000000000e+00 1.085555630514140057e+00 9.932197342725389566e-01
1.361000000000000057e-02 1.091365678416085228e+00 9.929671234941936930e-01
2.289000000000000062e-02 1.097371859824498364e+00 9.927059851720886341e-01
3.216999999999999721e-02 1.103581003633868685e+00 9.924360223977686246e-01
4.145000000000000073e-02 1.110000238141781947e+00 9.921569252452502319e-01
5.072000000000000119e-02 1.116637016568401197e+00 9.918683696614842837e-01
5.999000000000000166e-02 1.123499146594394649e+00 9.915700161820930614e-01
6.926000000000000212e-02 1.130594824736848913e+00 9.912615084367694118e-01
7.853000000000000258e-02 1.137932677418086458e+00 9.909424713636718618e-01
8.779000000000000692e-02 1.145521808485755466e+00 9.906125091433382046e-01
9.704999999999999738e-02 1.153371856807831053e+00 9.902712026945529322e-01
1.093200000000000005e-01 1.161493065980834904e+00 9.899181066435525089e-01
1.184400000000000036e-01 1.169896368830154465e+00 9.895527456501035379e-01
1.259000000000000119e-01 1.178593492928455611e+00 9.891746098197430337e-01
1.381900000000000073e-01 1.187597092776291108e+00 9.887831489567932008e-01
1.471899999999999875e-01 1.196920919074915490e+00 9.883777652046792372e-01
1.561899999999999955e-01 1.206580039606797383e+00 9.879578034424235655e-01
1.651700000000000113e-01 1.216591134740439006e+00 9.875225384366127512e-01
1.765500000000000125e-01 1.226972905331128016e+00 9.870711571065828860e-01
1.853400000000000047e-01 1.237746654417521297e+00 9.866027332332619748e-01
1.941100000000000048e-01 1.248937156287868833e+00 9.861161896736809762e-01
2.058699999999999974e-01 1.260574021391271282e+00 9.856102390170119465e-01
2.142999999999999905e-01 1.272693912447852904e+00 9.859750357411992683e-01
2.227099999999999913e-01 1.285371867746934793e+00 9.862887187691579127e-01
2.331300000000000039e-01 1.298687914055880022e+00 9.857085538820342663e-01
2.428599999999999925e-01 1.312766359859972143e+00 9.859785871333365259e-01
2.524899999999999922e-01 1.328310211731797308e+00 9.870880037699667486e-01
2.620999999999999996e-01 1.342907509671708466e+00 9.891048240087942922e-01
2.710600000000000231e-01 1.358034479887456403e+00 9.893290797451615992e-01
2.809599999999999875e-01 1.374132628044303583e+00 9.895144210749936553e-01
2.915699999999999958e-01 1.391635350429943907e+00 9.905009957562899148e-01
3.017199999999999882e-01 1.409702087709026053e+00 9.914616528986421873e-01
3.126700000000000035e-01 1.427326629461309171e+00 9.934014441047840371e-01
3.247900000000000231e-01 1.445199321964859340e+00 9.970538208402964786e-01
3.388999999999999790e-01 1.462909471350413826e+00 1.000924002040434857e+00
3.489399999999999724e-01 1.480797936470128251e+00 1.002845307177394618e+00
3.589600000000000013e-01 1.499049584721547035e+00 1.005875081149395056e+00
3.714999999999999969e-01 1.518797354534851429e+00 1.009690633260756032e+00
3.836100000000000065e-01 1.540453559259554961e+00 1.017953244004063729e+00
3.948699999999999988e-01 1.562677019055603855e+00 1.023249651938552995e+00
4.050099999999999811e-01 1.583608300551401227e+00 1.028832942002723128e+00
4.162299999999999889e-01 1.604779331493622063e+00 1.028875199369866600e+00
4.274299999999999766e-01 1.626766898146402962e+00 1.032783822487787440e+00
4.405999999999999917e-01 1.650051274272229085e+00 1.037776085006389293e+00
4.566999999999999948e-01 1.675004911707521860e+00 1.044631480843923876e+00
4.683999999999999830e-01 1.699343413488787702e+00 1.048778229851080823e+00
4.801000000000000267e-01 1.724637175253330934e+00 1.056768231140872150e+00
4.917799999999999949e-01 1.751040857549436947e+00 1.063656713433000167e+00
5.034499999999999531e-01 1.775685330173445875e+00 1.070690372644524047e+00
5.180299999999999905e-01 1.800710700877117931e+00 1.075789323107504636e+00
5.294200000000000017e-01 1.824852923887540390e+00 1.086528525464999229e+00
5.446600000000000330e-01 1.848753162144113338e+00 1.093514084417732679e+00
5.555799999999999628e-01 1.870774343925305061e+00 1.101075175443857246e+00
5.666900000000000270e-01 1.894045149240026760e+00 1.104363834875370820e+00
5.802399999999999780e-01 1.919282803534305248e+00 1.111705776399277701e+00
5.928099999999999481e-01 1.943602144485689909e+00 1.118432098997758528e+00
6.046200000000000463e-01 1.967682681054516713e+00 1.126489234352307856e+00
6.179799999999999738e-01 1.993901744502417639e+00 1.134466908317655953e+00
6.299000000000000155e-01 2.020926324462352319e+00 1.142265210112903384e+00
6.426300000000000345e-01 2.050251742606535199e+00 1.152582292429641386e+00
6.562799999999999745e-01 2.080518334332548847e+00 1.162367411900034231e+00
6.718100000000000183e-01 2.110132226004282519e+00 1.175791181320157586e+00
6.882899999999999574e-01 2.140702093885948010e+00 1.183028136141084818e+00
7.040499999999999536e-01 2.173479502954840825e+00 1.196804657686635132e+00
7.190199999999999925e-01 2.206703451877892075e+00 1.212478263457107630e+00
7.324699999999999545e-01 2.241768685723095622e+00 1.221493999994733848e+00
7.483400000000000052e-01 2.279365016667218580e+00 1.237702326545839338e+00
7.659399999999999542e-01 2.314850528592868883e+00 1.248671541730542511e+00
7.815199999999999925e-01 2.352366836628918545e+00 1.271023576281417933e+00
7.978600000000000136e-01 2.389692930305216567e+00 1.279984075476916061e+00
8.145599999999999508e-01 2.427456511240272174e+00 1.298623446465803744e+00
8.322000000000000508e-01 2.467647680499533980e+00 1.316858607140292570e+00
8.497099999999999653e-01 2.504171934840430769e+00 1.333614827684512782e+00
8.686199999999999477e-01 2.541688418880486466e+00 1.363256679656915660e+00
8.906199999999999672e-01 2.580785974060477272e+00 1.381623107084831936e+00
9.158199999999999674e-01 2.619068386436954388e+00 1.405593792135779507e+00
9.485000000000000098e-01 2.656299159299748691e+00 1.424288063095264123e+00
9.724099999999999966e-01 2.696514701516119938e+00 1.447120362173054398e+00
1.001049999999999995e+00 2.738790241371873879e+00 1.478454667015971946e+00
1.031609999999999916e+00 2.786463053128794165e+00 1.502717535266832494e+00
1.057940000000000103e+00 2.829878401705777424e+00 1.531592946187489535e+00
1.087089999999999890e+00 2.875874832986215157e+00 1.564129848058575689e+00
1.113920000000000021e+00 2.918084076975218988e+00 1.599722648986031004e+00
1.155299999999999994e+00 2.960487075404879320e+00 1.622413598843595484e+00
1.192309999999999981e+00 3.003249387240665147e+00 1.647460690576361353e+00
1.233589999999999964e+00 3.046147669303001848e+00 1.674356048561620014e+00
1.285809999999999897e+00 3.085416780462034492e+00 1.705582322253365923e+00
1.329329999999999901e+00 3.125921609375768462e+00 1.731128814460109355e+00
1.372810000000000086e+00 3.171837559709079102e+00 1.755213592628361630e+00
1.416260000000000074e+00 3.219206370217779778e+00 1.786151056467695009e+00
1.470560000000000089e+00 3.263760567474864871e+00 1.834917731122027940e+00
1.513279999999999959e+00 3.305539033229933921e+00 1.842524014416785372e+00
1.555949999999999944e+00 3.354570590576294808e+00 1.866911684848320263e+00
1.598570000000000046e+00 3.399600570359182949e+00 1.917428394606544684e+00
1.647680000000000033e+00 3.447211672765471135e+00 1.977060462093529924e+00
1.704339999999999966e+00 3.486195944606077290e+00 2.012331011286202287e+00
1.744720000000000049e+00 3.528247391987216375e+00 2.040257814747516996e+00
1.785039999999999960e+00 3.574429614874000904e+00 2.087053025033746234e+00
1.835660000000000069e+00 3.618753178290430306e+00 2.122600639138698231e+00
1.883199999999999985e+00 3.666668148513378966e+00 2.143815418286583618e+00
1.921240000000000059e+00 3.715187931398822752e+00 2.207050344397232688e+00
1.972590000000000066e+00 3.760850090708677929e+00 2.258643271344246362e+00
2.015509999999999913e+00 3.808598220980968563e+00 2.312701589666926516e+00
2.059919999999999973e+00 3.859815175013817434e+00 2.353005886486705389e+00
2.106030000000000069e+00 3.912044841726692646e+00 2.415086556937326989e+00
2.162949999999999928e+00 3.963073561444796056e+00 2.451319335435961921e+00
2.223939999999999806e+00 4.013538194851243190e+00 2.497325034276388855e+00
2.275850000000000151e+00 4.069206795176609326e+00 2.516454497258484135e+00
2.328219999999999956e+00 4.125928094910920940e+00 2.573220790011822690e+00
2.384430000000000049e+00 4.180105035052310569e+00 2.636066536397570381e+00
2.460160000000000124e+00 4.235474217188254009e+00 2.657809152981254641e+00
2.521590000000000220e+00 4.295278818364572260e+00 2.696422398725070391e+00
2.605020000000000113e+00 4.359985528486809869e+00 2.780882029707492098e+00
2.679180000000000117e+00 4.413332512565513177e+00 2.819161223463024779e+00
2.767490000000000006e+00 4.467544605595033858e+00 2.873585326946965335e+00
2.852899999999999991e+00 4.517995420845291932e+00 2.913774956378914371e+00
2.998860000000000081e+00 4.567241425663222110e+00 2.947780011073819928e+00
3.106040000000000134e+00 4.620781949570408997e+00 2.964994079797102167e+00
3.213179999999999925e+00 4.669664730363784599e+00 3.038064541850624245e+00
3.320279999999999898e+00 4.717973071487807424e+00 3.062844208683194402e+00
3.427340000000000053e+00 4.767492367905049377e+00 3.073248191871367219e+00
3.534370000000000012e+00 4.817547720865213989e+00 3.087467541670172455e+00
3.666939999999999866e+00 4.868597742869958722e+00 3.107597231612250432e+00
3.772250000000000103e+00 4.921153906967825620e+00 3.132805164513630558e+00
3.895319999999999894e+00 4.975206831341467684e+00 3.172593915556587874e+00
3.999140000000000139e+00 5.029546428401333813e+00 3.206184272154154691e+00
4.140559999999999796e+00 5.083068978143489680e+00 3.206358561332911528e+00
4.240910000000000402e+00 5.140666452338431114e+00 3.205671993342505743e+00
4.341160000000000352e+00 5.206208153103955460e+00 3.259704107803629736e+00
4.468740000000000379e+00 5.273012855268921051e+00 3.285167065354979599e+00
4.565290000000000070e+00 5.337292067746749247e+00 3.314986688720258812e+00
4.682100000000000151e+00 5.400319323783959291e+00 3.358560466463230032e+00
4.798770000000000202e+00 5.463474220913993484e+00 3.428806670207496410e+00
4.902569999999999872e+00 5.523111871960124653e+00 3.456443372916599088e+00
5.020150000000000112e+00 5.588124575427823260e+00 3.461634262137814666e+00
5.128049999999999997e+00 5.656630108014017111e+00 3.468163014541569833e+00
5.250619999999999621e+00 5.725263362863310057e+00 3.508289249604807036e+00
5.421240000000000059e+00 5.792680060862660518e+00 3.550421742380081014e+00
5.554829999999999934e+00 5.862598091952063051e+00 3.556674747046788543e+00
5.729460000000000441e+00 5.934939427956484437e+00 3.625267535344563807e+00
5.880300000000000082e+00 6.009186392982994285e+00 3.695870050510236648e+00
6.020809999999999995e+00 6.085457728596910698e+00 3.711546385632164657e+00
6.170679999999999943e+00 6.166577712944579126e+00 3.729452330881717792e+00
6.333619999999999806e+00 6.256241013249401739e+00 3.763459106347388783e+00
6.491159999999999819e+00 6.345641482714129644e+00 3.951330017280420659e+00
6.715939999999999799e+00 6.426053073031682494e+00 4.073075495681078628e+00
6.935810000000000031e+00 6.504483753476602459e+00 4.106899130429296996e+00
7.155700000000000394e+00 6.582018782023697057e+00 4.187954794939718006e+00
7.375600000000000378e+00 6.653500057386260380e+00 4.210352973618827654e+00
7.595519999999999605e+00 6.732261410613152641e+00 4.306184472378467021e+00
7.915449999999999875e+00 6.810890962678421090e+00 4.321030984351412307e+00
8.135389999999999233e+00 6.896197575105238897e+00 4.371799315975822608e+00
8.355339999999999989e+00 6.982795358572491118e+00 4.492525794777351145e+00
8.575300000000000367e+00 7.066473021787682107e+00 4.507986435383085855e+00
8.795279999999999987e+00 7.147963361038518926e+00 4.658963645044224222e+00
9.015259999999999607e+00 7.227344887517623384e+00 4.717354297287751130e+00
9.235239999999999227e+00 7.306120839779405074e+00 4.730052109802631577e+00
9.455239999999999867e+00 7.390274210910113162e+00 4.759707819661558759e+00
9.641450000000000742e+00 7.483954730702863323e+00 4.812965784247418277e+00
9.858670000000000044e+00 7.567161827348968473e+00 4.874340223251303783e+00
1.007362000000000002e+01 7.644877247459088920e+00 4.868795053673019346e+00
1.028834999999999944e+01 7.732589281427191708e+00 4.969798307490224332e+00
1.050306999999999924e+01 7.812733474940095846e+00 5.099433071892476299e+00
1.071776000000000018e+01 7.885034968398396238e+00 5.104258318571702091e+00
1.100103999999999971e+01 7.960963469137469772e+00 5.107921932523488806e+00
1.121299999999999919e+01 8.039455616269014726e+00 5.134626463936634799e+00
1.142489999999999917e+01 8.116824106033057262e+00 5.174222506081789241e+00
1.163674999999999926e+01 8.198924439033630662e+00 5.149689720583455532e+00
1.184850999999999921e+01 8.280067106026631762e+00 5.287476450662597749e+00
1.206020000000000003e+01 8.354046342612184262e+00 5.313115508923833552e+00
1.232417000000000051e+01 8.433479814519357021e+00 5.337303663709134227e+00
1.253289999999999971e+01 8.521313469227697723e+00 5.430278133838013055e+00
1.274149000000000065e+01 8.602175220024884439e+00 5.481492391580079726e+00
1.294993000000000016e+01 8.690314923719979490e+00 5.576908905184208010e+00
1.324047000000000018e+01 8.778441961133266247e+00 5.647428500372821958e+00
1.344281999999999933e+01 8.863242153625002118e+00 5.783327391022956121e+00
1.367820000000000036e+01 8.932644781134555956e+00 5.852350487089617026e+00
1.387674999999999947e+01 9.005416835511676155e+00 5.873065401205702862e+00
1.407506000000000057e+01 9.080061264717407710e+00 5.916860046827714825e+00
1.432915000000000028e+01 9.156235651345099313e+00 5.934949581644598737e+00
1.454346999999999923e+01 9.234357066985433349e+00 6.024369926296986755e+00
1.473143999999999920e+01 9.314305576808685316e+00 6.088354314350022278e+00
1.495262999999999920e+01 9.395807486360565619e+00 6.105480105790905831e+00
1.519345000000000034e+01 9.482886615553260512e+00 6.132526426898428085e+00
1.541247000000000078e+01 9.570393663422844810e+00 6.194693090585722040e+00
1.562594999999999956e+01 9.657549088658749170e+00 6.221097316758064544e+00
1.588162999999999947e+01 9.748933446708200279e+00 6.398729620419292274e+00
1.627551000000000059e+01 9.838352048377757342e+00 6.444408554580400406e+00
1.662002999999999986e+01 9.931051669003416293e+00 6.567766815804263913e+00
1.696455999999999875e+01 1.002224658875742946e+01 6.792080195436267509e+00
1.730912000000000006e+01 1.010293866356294501e+01 6.755615304808532784e+00
1.765369000000000099e+01 1.019258282322397413e+01 6.828514703120299956e+00
1.799827000000000155e+01 1.028417016854802135e+01 7.004860256519488182e+00
1.834287000000000134e+01 1.036203127127617307e+01 6.967795987770063704e+00
1.868747000000000114e+01 1.044893743917014284e+01 6.926375568977392483e+00
1.903208000000000055e+01 1.053754487309987553e+01 6.992879923718471780e+00
1.937668000000000035e+01 1.063510950132871180e+01 7.212163890406658062e+00
1.972128999999999976e+01 1.072930534226007460e+01 7.315516365135851018e+00
2.006588999999999956e+01 1.081430338945148151e+01 7.387896894520789459e+00
2.041048999999999936e+01 1.089948325452117572e+01 7.386320283004803144e+00
2.075506999999999991e+01 1.098556810301961306e+01 7.496204009957332381e+00
2.109963000000000122e+01 1.107210566567993482e+01 7.550490000541274505e+00
2.144416999999999973e+01 1.116012771307179108e+01 7.614882620059222340e+00
2.178868999999999900e+01 1.124252952189358012e+01 7.684356415273700946e+00
2.213317999999999941e+01 1.133135932378867672e+01 7.679182258975642661e+00
2.247764000000000095e+01 1.142238514430809282e+01 7.741566372209478963e+00
2.282206000000000046e+01 1.151720785686391224e+01 7.918059784044674032e+00
2.316644000000000148e+01 1.160840569288825286e+01 7.908215666267992994e+00
2.351077000000000083e+01 1.169481466417491689e+01 7.963264891055734651e+00
2.395504999999999995e+01 1.178789809493463103e+01 8.121203483254936017e+00
2.429926999999999992e+01 1.187069149331632545e+01 8.072595786749589664e+00
2.464342999999999861e+01 1.196147023084484040e+01 8.128097462356125291e+00
2.498752999999999957e+01 1.205483598704450010e+01 8.280570269205561829e+00
2.533156999999999925e+01 1.213431471941902906e+01 8.339391326298216001e+00
2.567552999999999841e+01 1.221950519158760429e+01 8.313590250098462420e+00
2.601941000000000059e+01 1.230367680322490109e+01 8.370153360763771033e+00
2.636321999999999832e+01 1.239093445123927673e+01 8.363256896035123233e+00
2.670693999999999946e+01 1.247941028519171347e+01 8.404547135405401548e+00
2.705058000000000007e+01 1.256635968794532410e+01 8.384607326582147024e+00
2.743062000000000111e+01 1.265968830392624511e+01 8.322868695900767833e+00
2.777234999999999943e+01 1.276365128836762608e+01 8.255298381453672008e+00
2.811403999999999925e+01 1.287582391982978436e+01 8.501382442491133062e+00
2.842118999999999929e+01 1.298000498484106480e+01 8.431379276390702060e+00
2.874612000000000123e+01 1.308022362604888222e+01 8.612209791651093127e+00
2.917076000000000136e+01 1.317635093069324981e+01 8.541999632749265103e+00
2.949509000000000114e+01 1.328102992826695150e+01 8.566489448275687479e+00
2.981912000000000162e+01 1.337981990581523561e+01 8.575817628129934533e+00
3.014283000000000001e+01 1.348277525564858514e+01 8.552376320396243514e+00
3.055023999999999873e+01 1.358581467885688632e+01 8.466986651203409764e+00
3.085370999999999952e+01 1.369469950192869234e+01 8.377058949257795817e+00
3.122887000000000057e+01 1.381263459399437643e+01 8.280864531895995029e+00
3.158331000000000088e+01 1.392896918419975272e+01 8.255340614348282813e+00
3.191653000000000162e+01 1.405264318669838275e+01 8.150354021642506552e+00
3.223714999999999975e+01 1.418445185851327750e+01 8.038909318590514275e+00
3.257569999999999766e+01 1.432731762451945023e+01 7.919271260076670593e+00
3.292186999999999841e+01 1.447954357887342702e+01 7.960346400814512613e+00
3.328513999999999839e+01 1.463573503861160141e+01 7.868983137126027927e+00
3.389609000000000094e+01 1.481900242254416078e+01 7.811755924216924996e+00
3.450533000000000072e+01 1.497947058531262599e+01 7.788564955328800110e+00
3.520190000000000197e+01 1.496413092799194189e+01 7.765735250786807597e+00
3.653002000000000038e+01 1.513202879549865720e+01 7.614544868748188478e+00
3.792390000000000327e+01 1.528912413032870532e+01 7.474592316263998448e+00
3.931777999999999906e+01 1.528411607646337167e+01 7.323005943630993109e+00
4.071166000000000196e+01 1.547493966314688585e+01 7.155455930444183821e+00
4.210553999999999775e+01 1.569602989479960087e+01 6.959972012361424376e+00
4.349942000000000064e+01 1.589778102045353592e+01 6.784634279344247787e+00
4.489330000000000354e+01 1.594959636557025284e+01 6.598454332730417704e+00
4.628717999999999932e+01 1.603644158955860277e+01 6.439996892587205757e+00
4.768106000000000222e+01 1.630102429852615131e+01 6.307459057242964739e+00
4.907493999999999801e+01 1.632163816889380570e+01 6.267292360411016894e+00
5.046882000000000090e+01 1.580231582567689763e+01 6.100284625659921467e+00
5.186269000000000062e+01 1.606097463052964969e+01 5.900081293694571904e+00
5.325657000000000352e+01 1.625339853926832845e+01 5.796842145844320449e+00
5.465044999999999931e+01 1.604201321500855926e+01 5.657338580091018976e+00
5.604433000000000220e+01 1.577475219049569688e+01 5.552466315169436228e+00
5.743820999999999799e+01 1.549291927212692777e+01 5.437910077620107252e+00
5.883209000000000088e+01 1.569095233179915816e+01 5.309046627318156908e+00
6.022596999999999667e+01 1.592256180473034100e+01 5.157523606694017992e+00
6.161984999999999957e+01 1.614728656459067579e+01 5.012133025352332183e+00
6.301373000000000246e+01 1.609686344012632020e+01 4.895160943673271703e+00
6.440761000000000536e+01 1.584131876854972987e+01 4.969069655536258345e+00
6.580149000000000115e+01 1.598167748834533164e+01 4.881509853911628838e+00
6.719536999999999694e+01 1.559851500587141793e+01 4.788573669578887859e+00
6.858924000000000376e+01 1.576788573669052518e+01 4.689467835862417111e+00
6.998311999999999955e+01 1.594967501797308707e+01 4.583078392187062811e+00
7.137699999999999534e+01 1.614684338736782365e+01 4.467687599569502233e+00
7.277088000000000534e+01 1.636480996756654349e+01 4.340169759955798234e+00
7.416476000000000113e+01 1.661859873480802463e+01 4.191954371554822423e+00
7.555863999999999692e+01 1.688656274281163761e+01 4.135553915100314448e+00
7.695252000000000692e+01 1.713838375973751127e+01 3.985863129937553317e+00
7.834640000000000271e+01 1.686517802163803736e+01 3.882903750926751218e+00
7.974026999999999532e+01 1.655568081979350836e+01 3.767605111987782252e+00
8.113415000000000532e+01 1.681568369461919943e+01 3.633977487999567657e+00
8.252803000000000111e+01 1.701609097019550987e+01 3.531401830180925128e+00
8.392190999999999690e+01 1.699085283234478894e+01 3.428636575923893481e+00
8.531579000000000690e+01 1.693816669914749795e+01 3.316324209714790250e+00
8.670965999999999951e+01 1.720266778813011754e+01 3.191214399166216964e+00
8.810353999999999530e+01 1.750892732159931242e+01 3.046141157592371140e+00
8.949742000000000530e+01 1.789880047290352039e+01 2.861015648643888021e+00
9.089130000000000109e+01 1.820594614048719961e+01 2.715691398875999862e+00
9.228516999999999371e+01 1.796112764894437319e+01 2.620432301074496984e+00
9.367905000000000371e+01 1.717036674211600911e+01 2.541846153958635668e+00
9.507292999999999950e+01 1.699679126914100280e+01 2.453665721259940646e+00
9.646680000000000632e+01 1.728890032587177927e+01 2.351104753963884963e+00
9.786068000000000211e+01 1.757269019821083944e+01 2.251707007451823728e+00
9.925454999999999472e+01 1.745207201896168314e+01 2.159055992424705472e+00
1.006484300000000047e+02 1.766003209082320424e+01 2.091552049590193363e+00
1.020422999999999973e+02 1.710547896632707676e+01 2.016302670270403663e+00
1.034361700000000042e+02 1.742114338867708767e+01 1.925531262732997462e+00
1.048300399999999968e+02 1.771198738082165747e+01 1.842850940517130942e+00
1.062239100000000036e+02 1.802123193495396336e+01 1.755957979344228814e+00
1.076177899999999994e+02 1.783625292508705940e+01 1.747698801121723600e+00
1.090116500000000030e+02 1.764833530300174758e+01 1.664026225887435206e+00
1.104055199999999957e+02 1.791349221100899669e+01 1.595083165478572429e+00
1.117993900000000025e+02 1.820085469721329119e+01 1.520366689462012255e+00
1.131932599999999951e+02 1.782811554324579717e+01 1.466215203893824315e+00
1.145871199999999988e+02 1.751834850005225519e+01 1.407147008791521436e+00
1.159809800000000024e+02 1.781524828417588324e+01 1.341829056284324029e+00
1.173748400000000061e+02 1.815112513666808525e+01 1.267936148736039659e+00
1.187686999999999955e+02 1.855012450120838707e+01 1.180156288537172804e+00
1.201625599999999991e+02 1.904592047142818600e+01 1.071078851811788191e+00
1.215564099999999996e+02 1.949604569439797785e+01 9.720462442565813710e-01
1.229502600000000001e+02 1.925908481650451876e+01 9.284884000859281450e-01
1.243441100000000006e+02 1.854105714575716846e+01 8.729624160107910535e-01
1.257379600000000011e+02 1.792350894520448534e+01 8.422031291352203297e-01
1.271317999999999984e+02 1.711057997660689622e+01 8.059770622013442409e-01
1.285256300000000067e+02 1.752061793123123223e+01 7.567698721928181049e-01
1.299194699999999898e+02 1.773338418539901440e+01 7.312379216926838676e-01
1.313132899999999950e+02 1.670645722733376815e+01 6.975912501731816873e-01
1.327071200000000033e+02 1.695933792535043594e+01 6.723007401499557778e-01
1.341009300000000053e+02 1.709576627405966320e+01 6.586579052790326738e-01
1.354947400000000073e+02 1.561054901478020973e+01 6.435057251705309511e-01
1.368885400000000061e+02 1.582741082677746824e+01 6.261567802107499414e-01
1.382823400000000049e+02 1.609408253964090818e+01 6.048230431816744579e-01
1.396761199999999974e+02 1.647425928786863381e+01 5.744063329419504260e-01
1.410698999999999899e+02 1.654672346281824247e+01 5.686091989459816087e-01
1.424636700000000076e+02 1.457669667733571828e+01 5.625391543737220390e-01
1.438574199999999905e+02 1.468273567052539619e+01 5.561768147823411557e-01
1.452511599999999987e+02 1.479401257902785183e+01 5.495002002721938172e-01
1.466448900000000037e+02 1.491094691218550849e+01 5.424841402827346171e-01
1.480386100000000056e+02 1.503402458408228348e+01 5.350994799689279269e-01
1.494322999999999979e+02 1.516381592672694545e+01 5.273119994102484220e-01
1.508259799999999871e+02 1.530100087076137605e+01 5.190809027681827503e-01
1.522196500000000015e+02 1.544640514654363450e+01 5.103566462212469901e-01
1.536132900000000063e+02 1.560105419544358796e+01 5.010777032872498760e-01
1.550069100000000049e+02 1.576625691584177424e+01 4.911655400633586632e-01
1.564004999999999939e+02 1.594374272561026906e+01 4.805163914772487277e-01
1.577940700000000049e+02 1.613590132943848232e+01 4.689868752475558900e-01
1.591876200000000097e+02 1.634624082073633389e+01 4.563665057696846827e-01
1.605811300000000017e+02 1.658037784980801632e+01 4.423182840253837012e-01
1.619746199999999874e+02 1.684862054152847222e+01 4.262237225221564008e-01
1.633680699999999888e+02 1.717541148279615371e+01 4.066162660460955203e-01
1.647614900000000091e+02 1.771580563273316500e+01 3.741926170498745541e-01
1.661548699999999883e+02 1.782538294913996069e+01 3.676153241657851845e-01
1.675482199999999864e+02 1.789528052109819001e+01 3.634214698482910455e-01
1.689202999999999975e+02 1.496513723136266805e+01 3.590495845232878347e-01
1.703113199999999949e+02 1.507914344352505509e+01 3.544893360367920576e-01
1.717023700000000019e+02 1.519814247212028846e+01 3.497293748929828361e-01
1.730934499999999900e+02 1.532244772409661770e+01 3.447571648139294842e-01
1.744845400000000097e+02 1.545240744580015146e+01 3.395587759457880939e-01
1.758756500000000074e+02 1.558841124749158524e+01 3.341186238781306828e-01
1.772667899999999861e+02 1.573089809816703877e+01 3.284191498511125906e-01
1.786579399999999964e+02 1.588036701936594142e+01 3.224403930031564669e-01
1.801491100000000074e+02 1.603739073981992647e+01 3.161594441849970294e-01
1.815402899999999988e+02 1.620263393272287544e+01 3.095497164688789105e-01
1.829314899999999966e+02 1.637687797708784387e+01 3.025799546942803953e-01
1.843226999999999975e+02 1.656105540257685504e+01 2.952128576747201083e-01
1.857139200000000017e+02 1.675629923097736551e+01 2.874031045386995498e-01
1.871051500000000090e+02 1.696401600506088059e+01 2.790944335753587913e-01
1.884963899999999910e+02 1.718599846320439539e+01 2.702151352496184877e-01
1.898876300000000015e+02 1.742460836312693218e+01 2.606707392527168876e-01
1.912788799999999867e+02 1.768309275661771451e+01 2.503313635130856585e-01
1.926701400000000035e+02 1.796617925792057591e+01 2.390079034609712827e-01
1.940613899999999887e+02 1.828133522808517952e+01 2.264016646543871025e-01
1.954526500000000055e+02 1.864194139871498379e+01 2.119774178291949085e-01
1.968438999999999908e+02 1.907813231949829813e+01 1.945297809978621117e-01
1.982351500000000044e+02 1.972158659255560309e+01 1.687916100755700588e-01
1.996263999999999896e+02 2.003819980466050055e+01 1.561247459553312678e-01
2.010176400000000001e+02 2.011481201982864775e+01 1.530602573486052886e-01
2.024088700000000074e+02 1.611410301273232903e+01 1.498567699283413768e-01
2.038000900000000115e+02 1.628169504938103174e+01 1.465049291953670896e-01
2.051912900000000093e+02 1.645722725188763391e+01 1.429942851452347952e-01
2.065476400000000012e+02 1.664128719518407706e+01 1.393130862793058589e-01
2.079402599999999950e+02 1.683453996166161559e+01 1.354480309497551049e-01
2.093328799999999887e+02 1.703774484027425373e+01 1.313839333775024543e-01
2.107255199999999888e+02 1.725177633039657366e+01 1.271033035750560314e-01
2.121181699999999921e+02 1.747765193099711212e+01 1.225857915630451517e-01
2.135074899999999900e+02 1.771656938076773713e+01 1.178074425676326892e-01
2.149794599999999889e+02 1.796995764477730617e+01 1.127396772874411507e-01
2.163511699999999962e+02 1.823954856524191470e+01 1.073478588781491411e-01
2.177226200000000063e+02 1.852748040353499803e+01 1.015892221122873390e-01
2.190937999999999874e+02 1.883645295071509906e+01 9.540977116868532004e-02
2.204647099999999966e+02 1.916996999036715010e+01 8.873943037564424596e-02
2.219353299999999933e+02 1.953273898980032541e+01 8.148405038698079694e-02
2.233056500000000142e+02 1.993137637133391848e+01 7.351130275630898825e-02
2.246756300000000124e+02 2.037577007135002916e+01 6.462342875598668657e-02
2.260452400000000068e+02 2.088207076324494693e+01 5.449741491808855059e-02
2.274771800000000042e+02 2.148068936360150971e+01 4.252504291095708655e-02
2.289062000000000126e+02 2.224704479267168011e+01 2.719793432955363785e-02
2.302269599999999912e+02 2.360680627114610886e+01 0.000000000000000000e+00
2.358741599999999892e+02 2.360680627114610886e+01 0.000000000000000000e+00
