# Time	a_winner	a_loosers
1.229000000000000058e-02 1.080648682235786806e+00 9.972682802615289166e-01
2.001999999999999960e-02 1.086401700662495307e+00 9.970581129789767294e-01
3.271000000000000296e-02 1.092362717585517728e+00 9.968389007613506214e-01
4.202000000000000179e-02 1.098540490175891726e+00 9.966102626135456832e-01
5.131999999999999756e-02 1.104944441018150592e+00 9.963717885839729060e-01
6.060999999999999721e-02 1.111584791319588206e+00 9.961230339691447000e-01
7.237999999999999989e-02 1.118472745459353046e+00 9.958635112851723648e-01
8.147000000000000075e-02 1.125620756182646343e+00 9.955926787316571325e-01
9.053999999999999548e-02 1.133042926075279455e+00 9.953099227283854766e-01
1.026999999999999996e-01 1.140755652452065450e+00 9.950145298656930537e-01
1.114200000000000051e-01 1.148778752581796070e+00 9.947056379651941782e-01
1.201200000000000045e-01 1.157137656344239263e+00 9.943821407198537576e-01
1.308999999999999886e-01 1.165868450145899571e+00 9.940424683419546437e-01
1.409799999999999942e-01 1.175033241243169657e+00 9.936839194246915863e-01
1.503200000000000092e-01 1.184813201650773529e+00 9.932986150353972921e-01
1.600999999999999923e-01 1.194764942992121881e+00 9.937900910591404013e-01
1.702799999999999869e-01 1.204714609659948588e+00 9.933970527114879268e-01
1.816099999999999937e-01 1.215275757016470282e+00 9.938393144284123348e-01
1.920199999999999962e-01 1.225362547931691415e+00 9.934398891152080857e-01
2.017500000000000127e-01 1.235844658607193391e+00 9.930232467877295743e-01
2.114699999999999913e-01 1.246750048389123400e+00 9.925881694312538306e-01
2.212000000000000077e-01 1.258112993159435922e+00 9.921331633883722079e-01
2.309199999999999864e-01 1.269977485317983268e+00 9.925518139295002040e-01
2.406300000000000106e-01 1.282403030581454884e+00 9.929093998365621232e-01
2.503500000000000170e-01 1.295494891483780053e+00 9.932930592561125538e-01
2.600600000000000134e-01 1.309475950465139427e+00 9.927227435407607326e-01
2.742800000000000238e-01 1.324616819365355802e+00 9.938634293535701936e-01
2.838399999999999812e-01 1.339575952041828666e+00 9.969602264341931308e-01
2.933999999999999941e-01 1.354063071437411780e+00 9.981694299391360437e-01
3.029499999999999971e-01 1.368434554436593009e+00 1.000329507231809023e+00
3.140700000000000158e-01 1.383622375297500540e+00 1.000598096489357491e+00
3.235399999999999943e-01 1.399931734352702462e+00 1.000830740108509254e+00
3.330099999999999727e-01 1.418068512052904184e+00 1.003641566586934264e+00
3.424699999999999966e-01 1.435211232160010564e+00 1.011329525260434403e+00
3.519200000000000106e-01 1.451236652756437984e+00 1.012425420251793495e+00
3.613799999999999790e-01 1.467095007000358553e+00 1.015544372126414796e+00
3.708199999999999830e-01 1.483816322226736872e+00 1.015729868873638919e+00
3.802599999999999869e-01 1.501739627980799741e+00 1.021815001842856896e+00
3.928900000000000170e-01 1.520652965583205951e+00 1.023677426014935055e+00
4.021199999999999775e-01 1.539802410930580789e+00 1.024787794463919433e+00
4.113399999999999834e-01 1.560260787080826494e+00 1.033369962161762912e+00
4.205499999999999794e-01 1.578735487004645721e+00 1.033427773833415886e+00
4.321599999999999886e-01 1.597791781937073274e+00 1.041358030550114444e+00
4.411399999999999766e-01 1.616380274903882031e+00 1.045402422204961157e+00
4.501100000000000101e-01 1.636453207131010945e+00 1.055583112276294200e+00
4.618800000000000128e-01 1.655848049197210292e+00 1.062193307758732885e+00
4.706699999999999773e-01 1.675721196334637897e+00 1.069311823918516646e+00
4.814399999999999791e-01 1.696812830014753803e+00 1.071291857320837648e+00
4.914200000000000235e-01 1.716347171209420486e+00 1.078827885496271177e+00
5.007700000000000484e-01 1.737304728699758494e+00 1.081748670224630615e+00
5.102700000000000014e-01 1.756587671425733355e+00 1.088032165338227664e+00
5.201500000000000012e-01 1.777434157142834481e+00 1.090248133891362547e+00
5.302499999999999991e-01 1.799038180629214834e+00 1.098964632056050661e+00
5.405699999999999950e-01 1.819310855291476736e+00 1.104112084445637576e+00
5.515099999999999447e-01 1.840671711017794143e+00 1.110460464528625124e+00
5.604999999999999982e-01 1.860377535288116446e+00 1.114976919770002572e+00
5.700300000000000367e-01 1.881320496664005137e+00 1.116237577056654828e+00
5.802000000000000490e-01 1.904138732662277400e+00 1.122138770039459388e+00
5.901899999999999924e-01 1.928559084938622936e+00 1.131530786351240936e+00
6.003100000000000103e-01 1.951726955244930561e+00 1.143941554968610053e+00
6.112400000000000055e-01 1.974644371260192433e+00 1.152036984130928587e+00
6.201299999999999590e-01 1.995507664404681414e+00 1.164885706299018109e+00
6.301400000000000334e-01 2.014975906751039769e+00 1.174553137071084219e+00
6.413100000000000467e-01 2.035117997515236699e+00 1.179670412419075776e+00
6.506199999999999761e-01 2.055676585478783736e+00 1.193658146135817999e+00
6.600599999999999801e-01 2.076524149736661329e+00 1.198204601472974584e+00
6.701899999999999524e-01 2.099346663601559637e+00 1.201013623891574955e+00
6.802099999999999813e-01 2.123338924382439430e+00 1.217777492655701010e+00
6.910800000000000276e-01 2.143104576226090963e+00 1.234171026280358019e+00
7.004700000000000371e-01 2.162779305942892805e+00 1.238200787022851301e+00
7.101899999999999880e-01 2.183630697463584180e+00 1.245871866056050603e+00
7.200400000000000134e-01 2.206023112803020325e+00 1.252911857082752878e+00
7.313199999999999701e-01 2.225725280527417915e+00 1.263920017075639057e+00
7.410099999999999465e-01 2.245828211671105024e+00 1.274608104147776588e+00
7.502199999999999980e-01 2.265845960694138572e+00 1.282309043023851070e+00
7.629599999999999715e-01 2.285030164993186119e+00 1.297719883565794374e+00
7.709000000000000297e-01 2.303469337515140491e+00 1.307018808378803021e+00
7.826100000000000279e-01 2.320234895990399782e+00 1.314748545140009606e+00
7.915999999999999703e-01 2.338297766001323552e+00 1.320488698596495869e+00
8.005799999999999583e-01 2.355947957075303467e+00 1.333853231105660564e+00
8.126200000000000090e-01 2.373048047173526687e+00 1.341934255542993615e+00
8.211899999999999755e-01 2.389904133056542257e+00 1.345353397056967104e+00
8.320899999999999963e-01 2.407668868710227894e+00 1.348220239273475229e+00
8.402199999999999669e-01 2.425617593700687191e+00 1.348626863188175040e+00
8.517200000000000326e-01 2.444861999316374490e+00 1.353697739671226863e+00
8.602100000000000302e-01 2.463457446343222834e+00 1.361994372819448795e+00
8.706500000000000350e-01 2.481932344447538519e+00 1.365786773800879761e+00
8.815399999999999903e-01 2.501701642042321705e+00 1.382841697155416494e+00
8.913200000000000012e-01 2.520221354581456907e+00 1.398063491945869652e+00
9.011599999999999611e-01 2.536925809399445342e+00 1.407437664117729303e+00
9.109899999999999665e-01 2.553342076477689293e+00 1.418726331230279580e+00
9.208300000000000374e-01 2.569852406458435379e+00 1.428416246127548250e+00
9.306699999999999973e-01 2.586515106541551923e+00 1.435953762954769397e+00
9.405000000000000027e-01 2.603114165729962348e+00 1.452268729862437713e+00
9.503399999999999626e-01 2.618497692203180627e+00 1.465572516916077150e+00
9.601800000000000335e-01 2.633299471961237703e+00 1.477533091518859587e+00
9.700100000000000389e-01 2.647521355288307010e+00 1.480437454145371090e+00
9.881299999999999528e-01 2.662280551396968953e+00 1.485990552840531276e+00
9.994499999999999496e-01 2.677948742249327996e+00 1.490881092885608439e+00
1.009109999999999951e+00 2.693584664387212779e+00 1.498017338137208609e+00
1.018760000000000110e+00 2.709721644286145814e+00 1.503666573657747474e+00
1.028419999999999890e+00 2.725272157313535892e+00 1.507829393420984765e+00
1.038079999999999892e+00 2.741464838299722651e+00 1.515818102313363669e+00
1.047730000000000050e+00 2.757798461016333302e+00 1.526905695533846474e+00
1.057390000000000052e+00 2.775648108228119693e+00 1.531932063849181791e+00
1.067039999999999988e+00 2.793046100550810706e+00 1.554002209249078392e+00
1.076689999999999925e+00 2.808420556296990167e+00 1.554685532529667569e+00
1.086340000000000083e+00 2.823308606454905334e+00 1.560913288538014365e+00
1.096000000000000085e+00 2.838316398918476757e+00 1.573346226740645948e+00
1.105650000000000022e+00 2.853725317727675570e+00 1.585712560199084464e+00
1.115299999999999958e+00 2.867937975657627980e+00 1.601620927858034449e+00
1.124940000000000051e+00 2.880997302708071750e+00 1.608159486765631474e+00
1.134589999999999987e+00 2.894342172052600581e+00 1.611876490599205347e+00
1.144239999999999924e+00 2.908862255531917018e+00 1.624272352459405599e+00
1.153880000000000017e+00 2.921821898344848734e+00 1.643817349783554871e+00
1.163529999999999953e+00 2.934809665746139551e+00 1.649895561474851391e+00
1.173170000000000046e+00 2.948321844065221686e+00 1.657368016729705573e+00
1.182809999999999917e+00 2.962505633662956495e+00 1.662995425971373953e+00
1.192450000000000010e+00 2.976737114031124065e+00 1.672954749464135249e+00
1.202090000000000103e+00 2.990777146085042748e+00 1.673970741686229724e+00
1.211729999999999974e+00 3.003677200997643570e+00 1.688765822711949971e+00
1.221360000000000001e+00 3.015886212840210412e+00 1.699581534526045878e+00
1.231000000000000094e+00 3.028435799620899260e+00 1.704534851111171978e+00
1.240629999999999900e+00 3.041423591570121321e+00 1.709843611943881569e+00
1.250259999999999927e+00 3.055040453625078811e+00 1.720339054451504701e+00
1.264760000000000106e+00 3.068771517853444930e+00 1.731534803398625089e+00
1.274199999999999999e+00 3.082016028559781518e+00 1.744555570238943476e+00
1.283639999999999892e+00 3.095948808032658928e+00 1.750712205774888064e+00
1.293069999999999942e+00 3.110967166835786557e+00 1.752404048955876981e+00
1.302499999999999991e+00 3.125066776783575584e+00 1.767865801525075220e+00
1.311930000000000041e+00 3.137959422876940074e+00 1.775485542743272527e+00
1.321350000000000025e+00 3.151088409932965018e+00 1.782795219794429231e+00
1.330770000000000008e+00 3.165287828785027902e+00 1.788577015533528325e+00
1.341250000000000053e+00 3.178749831634443801e+00 1.801465287297547402e+00
1.350619999999999932e+00 3.193011401986064257e+00 1.811000949647653124e+00
1.364959999999999951e+00 3.206480523012690487e+00 1.821744439301984153e+00
1.373969999999999914e+00 3.219880281534159394e+00 1.825181357203653043e+00
1.382970000000000033e+00 3.234342804546478600e+00 1.833302033317635304e+00
1.391969999999999930e+00 3.249297067152396412e+00 1.842226905025123651e+00
1.400949999999999918e+00 3.263492749944808757e+00 1.876407540288062448e+00
1.413149999999999906e+00 3.276359273713207454e+00 1.887811640317450523e+00
1.421740000000000004e+00 3.289163458065618162e+00 1.886718339824597690e+00
1.430309999999999970e+00 3.302185163865745565e+00 1.892895308289736178e+00
1.440989999999999993e+00 3.315122926469182385e+00 1.904478977967884790e+00
1.450890000000000013e+00 3.327237563593553826e+00 1.919895357073649000e+00
1.460169999999999968e+00 3.339594261350723681e+00 1.933182211921528060e+00
1.470650000000000013e+00 3.352084448954643747e+00 1.942768468624179290e+00
1.480050000000000088e+00 3.365129112185583526e+00 1.963134533756170308e+00
1.491919999999999913e+00 3.376422795168141811e+00 1.986268689175792357e+00
1.500860000000000083e+00 3.387486060531600618e+00 1.999020614924378769e+00
1.510699999999999932e+00 3.397003182877452510e+00 2.005254297886339909e+00
1.520529999999999937e+00 3.406768354503644680e+00 2.012922484230657005e+00
1.530370000000000008e+00 3.416836187802902991e+00 2.026004534027629145e+00
1.540200000000000014e+00 3.426944570660674039e+00 2.045525250621135882e+00
1.550030000000000019e+00 3.436959882477702788e+00 2.050253338204864662e+00
1.568100000000000049e+00 3.447369845673721844e+00 2.053082585145728167e+00
1.577790000000000026e+00 3.458610903145197035e+00 2.060004253487417891e+00
1.587469999999999937e+00 3.469023112605746473e+00 2.067992184422957624e+00
1.598719999999999919e+00 3.479203917896453113e+00 2.069974565589583371e+00
1.608370000000000077e+00 3.489364798230898845e+00 2.076311895541390840e+00
1.618020000000000014e+00 3.499343948814999994e+00 2.088035666338129204e+00
1.627669999999999950e+00 3.509143798784361223e+00 2.090040204086390130e+00
1.637320000000000109e+00 3.519305259393651131e+00 2.110861580760484024e+00
1.646970000000000045e+00 3.528764465085255431e+00 2.114616743356334538e+00
1.656619999999999981e+00 3.538486867539761604e+00 2.113688800804347512e+00
1.666269999999999918e+00 3.548613065907483488e+00 2.131397106898199834e+00
1.675920000000000076e+00 3.558426758871112927e+00 2.135056047317418493e+00
1.685559999999999947e+00 3.568629444849423571e+00 2.134072720462071526e+00
1.695210000000000106e+00 3.579340250923705113e+00 2.152504134364046529e+00
1.704849999999999977e+00 3.589217888827323399e+00 2.161502370559339248e+00
1.714490000000000069e+00 3.598833666304831258e+00 2.160585475297307045e+00
1.724129999999999940e+00 3.608724110883968716e+00 2.163519278784653554e+00
1.733770000000000033e+00 3.619081425903073690e+00 2.184214542629145495e+00
1.743409999999999904e+00 3.629205621385709346e+00 2.195943616756515837e+00
1.753049999999999997e+00 3.639936261835208242e+00 2.199465597043163800e+00
1.762690000000000090e+00 3.650606320993206921e+00 2.222623836959967569e+00
1.772319999999999895e+00 3.660900813841702295e+00 2.243236139165007081e+00
1.781959999999999988e+00 3.671000152624771307e+00 2.252448474695696756e+00
1.791590000000000016e+00 3.681447869035351150e+00 2.263909010201788252e+00
1.801220000000000043e+00 3.691603632414214520e+00 2.272738988111360658e+00
1.810850000000000071e+00 3.702006866039890376e+00 2.271684136888347805e+00
1.820470000000000033e+00 3.713147399416254935e+00 2.280652782494705821e+00
1.830100000000000060e+00 3.723541900685359618e+00 2.284086662473796547e+00
1.844500000000000028e+00 3.733785345990342730e+00 2.299936144961108209e+00
1.853930000000000078e+00 3.744253560406572756e+00 2.302509320289181094e+00
1.863359999999999905e+00 3.755078187208218399e+00 2.311277691390398736e+00
1.872789999999999955e+00 3.766054118082048596e+00 2.315770026205649312e+00
1.883399999999999963e+00 3.776312467703482056e+00 2.320396304831914502e+00
1.892779999999999907e+00 3.787106090732881292e+00 2.325060503290512948e+00
1.902160000000000073e+00 3.797150982374958961e+00 2.336888436113971679e+00
1.911529999999999951e+00 3.807873910522829419e+00 2.354428359216916178e+00
1.920889999999999986e+00 3.817548961642315941e+00 2.364342171756335986e+00
1.930250000000000021e+00 3.827171654072035523e+00 2.370528383271215844e+00
1.944390000000000063e+00 3.836626302464929417e+00 2.369570712674862634e+00
1.953389999999999960e+00 3.846618773331601293e+00 2.375643156791442223e+00
1.962380000000000013e+00 3.857301987802539855e+00 2.387649723273678859e+00
1.971360000000000001e+00 3.867048090244020297e+00 2.401887164137217923e+00
1.980320000000000080e+00 3.876097174613213792e+00 2.412409364027669589e+00
1.992289999999999894e+00 3.885159958707514960e+00 2.411470616709511461e+00
2.000859999999999861e+00 3.894311633388676253e+00 2.421153371984319236e+00
2.011680000000000135e+00 3.904339854511504004e+00 2.425714179698177819e+00
2.021720000000000184e+00 3.913528992971119891e+00 2.438714792091001282e+00
2.031179999999999986e+00 3.921508245937742831e+00 2.443848500784213673e+00
2.040900000000000158e+00 3.930024956744142095e+00 2.442934900954679023e+00
2.050279999999999880e+00 3.938250192423270235e+00 2.465991888428912926e+00
2.061049999999999827e+00 3.946066211161060711e+00 2.469549011833978014e+00
2.071499999999999897e+00 3.953665384629625024e+00 2.498960891863482470e+00
2.081399999999999917e+00 3.961387752779587768e+00 2.516295661053558952e+00
2.091299999999999937e+00 3.968810912597196427e+00 2.521250157542939796e+00
2.101189999999999891e+00 3.976456216056782900e+00 2.526058875110402280e+00
2.111079999999999846e+00 3.984428866578174855e+00 2.532278444385580141e+00
2.120979999999999865e+00 3.992245159770372531e+00 2.547984636501876565e+00
2.130869999999999820e+00 3.999462491848876589e+00 2.547216194080126339e+00
2.140769999999999840e+00 4.006808373367852560e+00 2.546433363537571104e+00
2.150659999999999794e+00 4.014303193263017100e+00 2.545633865820981168e+00
2.160559999999999814e+00 4.021982429339582943e+00 2.560916042813370375e+00
2.170450000000000212e+00 4.029945192220312222e+00 2.567210140601179802e+00
2.180340000000000167e+00 4.037942659657755229e+00 2.577375016061677293e+00
2.190240000000000187e+00 4.045796238527850974e+00 2.585682374032785003e+00
2.200130000000000141e+00 4.053966214622398034e+00 2.598125531357608597e+00
2.210020000000000095e+00 4.062259766951392237e+00 2.601514036110870620e+00
2.224660000000000082e+00 4.070557748785230245e+00 2.615151856894648130e+00
2.234500000000000153e+00 4.078802002981105623e+00 2.621006651728059023e+00
2.244330000000000158e+00 4.087091651326915986e+00 2.637171076179106510e+00
2.254169999999999785e+00 4.094945118750069391e+00 2.640637617703022855e+00
2.264009999999999856e+00 4.103004968634886396e+00 2.653950097842974198e+00
2.273849999999999927e+00 4.111129620814475416e+00 2.664386255941408432e+00
2.283689999999999998e+00 4.119670673132025840e+00 2.672565189670418118e+00
2.293520000000000003e+00 4.127377934444472096e+00 2.678903488218288498e+00
2.303360000000000074e+00 4.134984080600023759e+00 2.692627891917916738e+00
2.313190000000000079e+00 4.142426498294302206e+00 2.716887070316611918e+00
2.323030000000000150e+00 4.149833172439072904e+00 2.716028713472500300e+00
2.332870000000000221e+00 4.157060903760319448e+00 2.736663133130330827e+00
2.342699999999999783e+00 4.164309052836616232e+00 2.735819459174174018e+00
2.352539999999999853e+00 4.171841457892214500e+00 2.744546492026235018e+00
2.362369999999999859e+00 4.179429374453471624e+00 2.762196235866553717e+00
2.372199999999999864e+00 4.186911135426559127e+00 2.761317135708924120e+00
2.382039999999999935e+00 4.195291680411964208e+00 2.774568494393593099e+00
2.391869999999999941e+00 4.201829446199520035e+00 2.783293156784601319e+00
2.401699999999999946e+00 4.208484192750706399e+00 2.787846727078018727e+00
2.411540000000000017e+00 4.215273802243909351e+00 2.787047639482532979e+00
2.421370000000000022e+00 4.222227813840017774e+00 2.786228513455780487e+00
2.431200000000000028e+00 4.229422193686627196e+00 2.790828208095353702e+00
2.441030000000000033e+00 4.236714483041734702e+00 2.789964863647792281e+00
2.450860000000000039e+00 4.244355641304107252e+00 2.800806062946656461e+00
2.460690000000000044e+00 4.251534642043740320e+00 2.807127185158788230e+00
2.470520000000000049e+00 4.259061774406996292e+00 2.806210116844588764e+00
2.480350000000000055e+00 4.267040568216270202e+00 2.814763094852232861e+00
2.490180000000000060e+00 4.273918614618260392e+00 2.818728392982527087e+00
2.500010000000000066e+00 4.280824794690046176e+00 2.831447789176039453e+00
2.517990000000000173e+00 4.287994287524784731e+00 2.830575982321164918e+00
2.529269999999999907e+00 4.295704823580506648e+00 2.845622184435365298e+00
2.538920000000000066e+00 4.302677353028991902e+00 2.861762142346828242e+00
2.548560000000000159e+00 4.309513627174021977e+00 2.860933173030780541e+00
2.558209999999999873e+00 4.316586344135961539e+00 2.860073936414392115e+00
2.567849999999999966e+00 4.324010086737414049e+00 2.859169903741041630e+00
2.577500000000000124e+00 4.332074064023327509e+00 2.865059010090362346e+00
2.587140000000000217e+00 4.339413069707144466e+00 2.864157047270476930e+00
2.596789999999999932e+00 4.347255327126604563e+00 2.895709174275996389e+00
2.606430000000000025e+00 4.354078075346373922e+00 2.894884221393335899e+00
2.616070000000000118e+00 4.360714960854648936e+00 2.898691063703542348e+00
2.625710000000000210e+00 4.367215337336474157e+00 2.907372067388977133e+00
2.635349999999999859e+00 4.373357411165160080e+00 2.913388022878938166e+00
2.644989999999999952e+00 4.379667262958566454e+00 2.922053470023881605e+00
2.654619999999999980e+00 4.385515979919528462e+00 2.921324985132149443e+00
2.664260000000000073e+00 4.391698174340618266e+00 2.935870596348574946e+00
2.673890000000000100e+00 4.397576231700111471e+00 2.935136853994229522e+00
2.683530000000000193e+00 4.403557009582458548e+00 2.943383575815005315e+00
2.693160000000000220e+00 4.409286837862703479e+00 2.961381055361189674e+00
2.702789999999999804e+00 4.414674596372909932e+00 2.960705811159428880e+00
2.712419999999999831e+00 4.420135229591424242e+00 2.960020450921974966e+00
2.722049999999999859e+00 4.425678204643958225e+00 2.959323635835227506e+00
2.731679999999999886e+00 4.431317495867721945e+00 2.958613383952916287e+00
2.741299999999999848e+00 4.437076741572659522e+00 2.957886333033999726e+00
2.750929999999999875e+00 4.443008928387943257e+00 2.957134926524664031e+00
2.760549999999999837e+00 4.449303780199450387e+00 2.974810510091914662e+00
2.770169999999999799e+00 4.454955567238039649e+00 2.974096429394753827e+00
2.784590000000000121e+00 4.460781165967192763e+00 2.991395473141417405e+00
2.795329999999999870e+00 4.466608174005128440e+00 2.990654031656317713e+00
2.804720000000000102e+00 4.472691959780489945e+00 2.999296124936070118e+00
2.814099999999999824e+00 4.478470001510369336e+00 2.998560563895888542e+00
2.823479999999999990e+00 4.484540768607700123e+00 2.997782890750190887e+00
2.832850000000000090e+00 4.490464181425761758e+00 3.017210189481464244e+00
2.842220000000000191e+00 4.496209436072540200e+00 3.022185851167149551e+00
2.851579999999999782e+00 4.501565968670262485e+00 3.021508669865978103e+00
2.860939999999999817e+00 4.507001975277428407e+00 3.020820921904986633e+00
2.870299999999999851e+00 4.512527435139393361e+00 3.020121301866451891e+00
2.884440000000000115e+00 4.518155883838607778e+00 3.019408034970002763e+00
2.893429999999999946e+00 4.523906897151824147e+00 3.025385330653645788e+00
2.902410000000000156e+00 4.529813138245416759e+00 3.024630383730987138e+00
2.911379999999999857e+00 4.535939824018099031e+00 3.023845999182230404e+00
2.920339999999999936e+00 4.542560708708182737e+00 3.022995264012845240e+00
2.932290000000000063e+00 4.548612746666218065e+00 3.038765787093073989e+00
2.940850000000000186e+00 4.554652711234135509e+00 3.037991235281180202e+00
2.951659999999999950e+00 4.561169861520399493e+00 3.063536327509717605e+00
2.961679999999999868e+00 4.566716656417588283e+00 3.062818181958599340e+00
2.971099999999999852e+00 4.572584070955164393e+00 3.062055929741083204e+00
2.980760000000000076e+00 4.578273434950189014e+00 3.070182003097446710e+00
2.990470000000000184e+00 4.583984141382388522e+00 3.069449416376641704e+00
3.001219999999999999e+00 4.589824037901244935e+00 3.080526047164179992e+00
3.016169999999999796e+00 4.595012445191248851e+00 3.079848465802836444e+00
3.026060000000000194e+00 4.599975247516644217e+00 3.093536352252083788e+00
3.035950000000000149e+00 4.604607964083758276e+00 3.092922911936589525e+00
3.045840000000000103e+00 4.609318524454717902e+00 3.092297717857273476e+00
3.055740000000000123e+00 4.614105499573632585e+00 3.098556157836495295e+00
3.065630000000000077e+00 4.618879410007320274e+00 3.111128260173558147e+00
3.075520000000000032e+00 4.623813275094654784e+00 3.110462027519472539e+00
3.085409999999999986e+00 4.628654155201329168e+00 3.122865773575467685e+00
3.095299999999999940e+00 4.633065273654694671e+00 3.122287086401594802e+00
3.105189999999999895e+00 4.637506633444186122e+00 3.121703937112472627e+00
3.115089999999999915e+00 4.641989903480190804e+00 3.121114393618584781e+00
3.124979999999999869e+00 4.646466461031060646e+00 3.133009906690586543e+00
3.134869999999999823e+00 4.650965747462146638e+00 3.132417396567885426e+00
3.144760000000000222e+00 4.655493990959391759e+00 3.131820719988350099e+00
3.154650000000000176e+00 4.660052103885575114e+00 3.131219750026258630e+00
3.164540000000000131e+00 4.664641092149182100e+00 3.130614346708297635e+00
3.174430000000000085e+00 4.669262075894089037e+00 3.130004354069948924e+00
3.184320000000000039e+00 4.673916317269758203e+00 3.129389596174917632e+00
3.194209999999999994e+00 4.678605264017189569e+00 3.128769870869236858e+00
3.204099999999999948e+00 4.683330621896399926e+00 3.128144939328976637e+00
3.213989999999999903e+00 4.688094504060216217e+00 3.127514504489706582e+00
3.223879999999999857e+00 4.692899853555921652e+00 3.126878150067449180e+00
3.233769999999999811e+00 4.697753056679233374e+00 3.126234964733843213e+00
3.243660000000000210e+00 4.702639473236134293e+00 3.144825991398821685e+00
3.253540000000000099e+00 4.707560162990915842e+00 3.144171938103196062e+00
3.263430000000000053e+00 4.712533200550424795e+00 3.143510436131862651e+00
3.273320000000000007e+00 4.717565322436920283e+00 3.142840517410266266e+00
3.283209999999999962e+00 4.722666606579081439e+00 3.151498665334141247e+00
3.293099999999999916e+00 4.727812136312165237e+00 3.150810223509209251e+00
3.302979999999999805e+00 4.733044496315202743e+00 3.150109161720931805e+00
3.312870000000000203e+00 4.738397621406414295e+00 3.149390122213592935e+00
3.322760000000000158e+00 4.744020894708072866e+00 3.161639962348357979e+00
3.332650000000000112e+00 4.749209220796728026e+00 3.160953160928690941e+00
3.342530000000000001e+00 4.754499183924104422e+00 3.160253772214121959e+00
3.352419999999999956e+00 4.759933614381015587e+00 3.159536984479040189e+00
3.362299999999999844e+00 4.765652838944547831e+00 3.158787144105244415e+00
3.372189999999999799e+00 4.771248869837134698e+00 3.163354991098371816e+00
3.382080000000000197e+00 4.776162111095330509e+00 3.162690115319279460e+00
3.391960000000000086e+00 4.781133166705259896e+00 3.175513576314007658e+00
3.401850000000000041e+00 4.786185705211776664e+00 3.174822812584164211e+00
3.411729999999999929e+00 4.791272151432505844e+00 3.179995412438687552e+00
3.421619999999999884e+00 4.796314556478199265e+00 3.179300353377700006e+00
3.431500000000000217e+00 4.801431459808856772e+00 3.178594295933515834e+00
3.441390000000000171e+00 4.806656174957035788e+00 3.177872465077036246e+00
3.451270000000000060e+00 4.811989149430929480e+00 3.186474524793877272e+00
3.461160000000000014e+00 4.817124692591258750e+00 3.195064868839625039e+00
3.471039999999999903e+00 4.822222869434775738e+00 3.194356846683854556e+00
3.480919999999999792e+00 4.827388579951033876e+00 3.193638730241065815e+00
3.490810000000000191e+00 4.832633347717466776e+00 3.192908850948052546e+00
3.500690000000000079e+00 4.837977162726233793e+00 3.192164326620984927e+00
3.510569999999999968e+00 4.843468557137237340e+00 3.191398191396197515e+00
3.520449999999999857e+00 4.849110400894854678e+00 3.200497603471000652e+00
3.530339999999999812e+00 4.854470104074242620e+00 3.199747760761302295e+00
3.540220000000000145e+00 4.860077126902674571e+00 3.198961906354760298e+00
3.550100000000000033e+00 4.865406520774572918e+00 3.206802625490290826e+00
3.564709999999999823e+00 4.870646582714590167e+00 3.219200715565112336e+00
3.574530000000000207e+00 4.875948685087337253e+00 3.218453390050837193e+00
3.584360000000000213e+00 4.881357886725247397e+00 3.217689667842597689e+00
3.594180000000000152e+00 4.886910408921081306e+00 3.216904010462839469e+00
3.604000000000000092e+00 4.892691734378820101e+00 3.225529539475069374e+00
3.613820000000000032e+00 4.899099273365197682e+00 3.245472229447182055e+00
3.623639999999999972e+00 4.904233057427945575e+00 3.244744452839440019e+00
3.633469999999999978e+00 4.909624036698288840e+00 3.243979336358873589e+00
3.643289999999999917e+00 4.914649438235806578e+00 3.251798427958257687e+00
3.653109999999999857e+00 4.919466718860728172e+00 3.251112384631931640e+00
3.662929999999999797e+00 4.924310725918046749e+00 3.263177123973469929e+00
3.672750000000000181e+00 4.929183802057996111e+00 3.262481494453697728e+00
3.682560000000000056e+00 4.934100882168047875e+00 3.261778837212696125e+00
3.692379999999999995e+00 4.939065279681397413e+00 3.261068610440719162e+00
3.702199999999999935e+00 4.944081366747575146e+00 3.260350096625740157e+00
3.712019999999999875e+00 4.949155360122454717e+00 3.259622271622715228e+00
3.721839999999999815e+00 4.954297207931110947e+00 3.258883490142198358e+00
3.731650000000000134e+00 4.959526567721312951e+00 3.258130489140402375e+00
3.741470000000000073e+00 4.964908954207144731e+00 3.257352361634873628e+00
3.751279999999999948e+00 4.970225760621922007e+00 3.268484025503232360e+00
3.761099999999999888e+00 4.975319641954357941e+00 3.267751902648922790e+00
3.770910000000000206e+00 4.980468035336612864e+00 3.267011119459212409e+00
3.780730000000000146e+00 4.985675367327436547e+00 3.275304687811238846e+00
3.790540000000000020e+00 4.990949047524000370e+00 3.274541012808855456e+00
3.800359999999999960e+00 4.996297191009425376e+00 3.273765471479502587e+00
3.810169999999999835e+00 5.001731396756633252e+00 3.272976175880981664e+00
3.829619999999999802e+00 5.007270693901785030e+00 3.272170009584099315e+00
3.839240000000000208e+00 5.012954826455856328e+00 3.271340417634192477e+00
3.848850000000000104e+00 5.018967552874260107e+00 3.270456862406666332e+00
3.858470000000000066e+00 5.024520649943194250e+00 3.282002286917422129e+00
3.868090000000000028e+00 5.029993235691453179e+00 3.281209336647011199e+00
3.877699999999999925e+00 5.035573078892457310e+00 3.289667874163816563e+00
3.887319999999999887e+00 5.041259295499108006e+00 3.288839651353113069e+00
3.896929999999999783e+00 5.047057933906743621e+00 3.296611436491018399e+00
3.906540000000000123e+00 5.052869661798983891e+00 3.295760317400070694e+00
3.916150000000000020e+00 5.058912951439287653e+00 3.294872742891229667e+00
3.925759999999999916e+00 5.065416660895241563e+00 3.306354410741063621e+00
3.935369999999999813e+00 5.071668152964636356e+00 3.324998462344554540e+00
3.942079999999999806e+00 5.077306139568540821e+00 3.336855930206930942e+00
3.951789999999999914e+00 5.082458891097586751e+00 3.343258786374970981e+00
3.961510000000000087e+00 5.087626876051515090e+00 3.342493646838791577e+00
3.971220000000000194e+00 5.092888115048564757e+00 3.341713560712364028e+00
3.980919999999999792e+00 5.098263954085904714e+00 3.340915121998878412e+00
3.990629999999999900e+00 5.103791573935718695e+00 3.340092414083112526e+00